unknown system                          
   6.01135000000000     
     1.000000    0.000000    0.000000
     0.000000    1.000000    0.000000
     0.000000    0.000000    1.000000
   S    Hg
     4     4
Direct
  0.250000  0.250000  0.250000
  0.750000  0.750000  0.250000
  0.750000  0.250000  0.750000
  0.250000  0.750000  0.750000
  0.500000  0.500000  0.000000
  0.500000  0.000000  0.500000
  0.000000  0.500000  0.500000
  0.000000  0.000000  0.000000
 
   56   56   56
 0.12483217865E+04 0.12104637099E+04 0.11088466278E+04 0.97127922629E+03 0.82395808152E+03
 0.67913013918E+03 0.53728686459E+03 0.39914051143E+03 0.27357914815E+03 0.17371863332E+03
 0.10668322729E+03 0.68036266504E+02 0.45481436069E+02 0.31294036059E+02 0.22296533599E+02
 0.16342958741E+02 0.12239536677E+02 0.93480324176E+01 0.72823181097E+01 0.57779875945E+01
 0.46560862087E+01 0.38048064427E+01 0.31563517418E+01 0.26660316167E+01 0.23010252116E+01
 0.20371895533E+01 0.18582316814E+01 0.17542835733E+01 0.17201713827E+01 0.17542835733E+01
 0.18582316814E+01 0.20371895533E+01 0.23010252116E+01 0.26660316167E+01 0.31563517418E+01
 0.38048064427E+01 0.46560862087E+01 0.57779875945E+01 0.72823181097E+01 0.93480324176E+01
 0.12239536677E+02 0.16342958741E+02 0.22296533599E+02 0.31294036059E+02 0.45481436069E+02
 0.68036266504E+02 0.10668322729E+03 0.17371863332E+03 0.27357914815E+03 0.39914051143E+03
 0.53728686459E+03 0.67913013918E+03 0.82395808152E+03 0.97127922629E+03 0.11088466278E+04
 0.12104637099E+04 0.12104637099E+04 0.11747322561E+04 0.10785990946E+04 0.94772540985E+03
 0.80618293463E+03 0.66526636262E+03 0.52590706858E+03 0.38986645365E+03 0.26667711694E+03
 0.16931366181E+03 0.10434923171E+03 0.66953624650E+02 0.44943069049E+02 0.31061351593E+02
 0.22224979841E+02 0.16353041790E+02 0.12290756673E+02 0.94186310829E+01 0.73593824132E+01
 0.58537856819E+01 0.47264963088E+01 0.38681228162E+01 0.32123184484E+01 0.27152291088E+01
 0.23445385526E+01 0.20763763617E+01 0.18944988640E+01 0.17889154221E+01 0.17542835733E+01
 0.17889154221E+01 0.18944988640E+01 0.20763763617E+01 0.23445385526E+01 0.27152291088E+01
 0.32123184484E+01 0.38681228162E+01 0.47264963088E+01 0.58537856819E+01 0.73593824132E+01
 0.94186310829E+01 0.12290756673E+02 0.16353041790E+02 0.22224979841E+02 0.31061351593E+02
 0.44943069049E+02 0.66953624650E+02 0.10434923171E+03 0.16931366181E+03 0.26667711694E+03
 0.38986645365E+03 0.52590706858E+03 0.66526636262E+03 0.80618293463E+03 0.94772540985E+03
 0.10785990946E+04 0.11747322561E+04 0.11088466278E+04 0.10785990946E+04 0.99656652035E+03
 0.88282210406E+03 0.75602803957E+03 0.62523306911E+03 0.49270537520E+03 0.36292391239E+03
 0.24686878088E+03 0.15685137709E+03 0.97821013218E+02 0.63901117467E+02 0.43414685139E+02
 0.30403506350E+02 0.22026651855E+02 0.16389343536E+02 0.12446478990E+02 0.96310552516E+01
 0.75908581383E+01 0.60816632954E+01 0.49386695482E+01 0.40595268635E+01 0.33820953163E+01
 0.28649503094E+01 0.24772655731E+01 0.21960148868E+01 0.20051766835E+01 0.18944988640E+01
 0.18582316814E+01 0.18944988640E+01 0.20051766835E+01 0.21960148868E+01 0.24772655731E+01
 0.28649503094E+01 0.33820953163E+01 0.40595268635E+01 0.49386695482E+01 0.60816632954E+01
 0.75908581383E+01 0.96310552516E+01 0.12446478990E+02 0.16389343536E+02 0.22026651855E+02
 0.30403506350E+02 0.43414685139E+02 0.63901117467E+02 0.97821013218E+02 0.15685137709E+03
 0.24686878088E+03 0.36292391239E+03 0.49270537520E+03 0.62523306911E+03 0.75602803957E+03
 0.88282210406E+03 0.99656652035E+03 0.10785990946E+04 0.97127922629E+03 0.94772540985E+03
 0.88282210406E+03 0.78975271825E+03 0.68082455214E+03 0.56291605638E+03 0.44040753614E+03
 0.32101931689E+03 0.21682181925E+03 0.13846399531E+03 0.88376075350E+02 0.59363751259E+02
 0.41135113141E+02 0.29431120507E+02 0.21747484160E+02 0.16469925354E+02 0.12713663566E+02
 0.99879924426E+01 0.79781633604E+01 0.64633455436E+01 0.52954284879E+01 0.43831560812E+01
 0.36709621823E+01 0.31212249678E+01 0.27055131019E+01 0.24022617860E+01 0.21960148868E+01
 0.20763763617E+01 0.20371895533E+01 0.20763763617E+01 0.21960148868E+01 0.24022617860E+01
 0.27055131019E+01 0.31212249678E+01 0.36709621823E+01 0.43831560812E+01 0.52954284879E+01
 0.64633455436E+01 0.79781633604E+01 0.99879924426E+01 0.12713663566E+02 0.16469925354E+02
 0.21747484160E+02 0.29431120507E+02 0.41135113141E+02 0.59363751259E+02 0.88376075350E+02
 0.13846399531E+03 0.21682181925E+03 0.32101931689E+03 0.44040753614E+03 0.56291605638E+03
 0.68082455214E+03 0.78975271825E+03 0.88282210406E+03 0.94772540985E+03 0.82395808152E+03
 0.80618293463E+03 0.75602803957E+03 0.68082455214E+03 0.58794677825E+03 0.48327582639E+03
 0.37353833136E+03 0.26880712293E+03 0.18077739276E+03 0.11724027156E+03 0.77678573006E+02
 0.53937838038E+02 0.38436031969E+02 0.28297809318E+02 0.21453917961E+02 0.16623460242E+02
 0.13105120748E+02 0.10495444928E+02 0.85247907566E+01 0.70022654548E+01 0.58014652464E+01
 0.48454414219E+01 0.40870186727E+01 0.34934436210E+01 0.30394394050E+01 0.27055131019E+01
 0.24772655731E+01 0.23445385526E+01 0.23010252116E+01 0.23445385526E+01 0.24772655731E+01
 0.27055131019E+01 0.30394394050E+01 0.34934436210E+01 0.40870186727E+01 0.48454414219E+01
 0.58014652464E+01 0.70022654548E+01 0.85247907566E+01 0.10495444928E+02 0.13105120748E+02
 0.16623460242E+02 0.21453917961E+02 0.28297809318E+02 0.38436031969E+02 0.53937838038E+02
 0.77678573006E+02 0.11724027156E+03 0.18077739276E+03 0.26880712293E+03 0.37353833136E+03
 0.48327582639E+03 0.58794677825E+03 0.68082455214E+03 0.75602803957E+03 0.80618293463E+03
 0.67913013918E+03 0.66526636262E+03 0.62523306911E+03 0.56291605638E+03 0.48327582639E+03
 0.39241390157E+03 0.29872711884E+03 0.21272448597E+03 0.14390919417E+03 0.96447866284E+02
 0.67164877974E+02 0.48290999403E+02 0.35660522226E+02 0.27163110031E+02 0.21218733630E+02
 0.16884423799E+02 0.13637897976E+02 0.11162149396E+02 0.92361098091E+01 0.77034962519E+01
 0.64632690172E+01 0.54549936543E+01 0.46410941730E+01 0.39944290099E+01 0.34934436210E+01
 0.31212249678E+01 0.28649503094E+01 0.27152291088E+01 0.26660316167E+01 0.27152291088E+01
 0.28649503094E+01 0.31212249678E+01 0.34934436210E+01 0.39944290099E+01 0.46410941730E+01
 0.54549936543E+01 0.64632690172E+01 0.77034962519E+01 0.92361098091E+01 0.11162149396E+02
 0.13637897976E+02 0.16884423799E+02 0.21218733630E+02 0.27163110031E+02 0.35660522226E+02
 0.48290999403E+02 0.67164877974E+02 0.96447866284E+02 0.14390919417E+03 0.21272448597E+03
 0.29872711884E+03 0.39241390157E+03 0.48327582639E+03 0.56291605638E+03 0.62523306911E+03
 0.66526636262E+03 0.53728686459E+03 0.52590706858E+03 0.49270537520E+03 0.44040753614E+03
 0.37353833136E+03 0.29872711884E+03 0.22457898462E+03 0.15999611134E+03 0.11107952429E+03
 0.78509467140E+02 0.57487182112E+02 0.42995403623E+02 0.33085684653E+02 0.26157296903E+02
 0.21104737289E+02 0.17284316927E+02 0.14327747702E+02 0.11996000293E+02 0.10117253831E+02
 0.85727069512E+01 0.72887998097E+01 0.62227374514E+01 0.53471843023E+01 0.46410941730E+01
 0.40870186727E+01 0.36709621823E+01 0.33820953163E+01 0.32123184484E+01 0.31563517418E+01
 0.32123184484E+01 0.33820953163E+01 0.36709621823E+01 0.40870186727E+01 0.46410941730E+01
 0.53471843023E+01 0.62227374514E+01 0.72887998097E+01 0.85727069512E+01 0.10117253831E+02
 0.11996000293E+02 0.14327747702E+02 0.17284316927E+02 0.21104737289E+02 0.26157296903E+02
 0.33085684653E+02 0.42995403623E+02 0.57487182112E+02 0.78509467140E+02 0.11107952429E+03
 0.15999611134E+03 0.22457898462E+03 0.29872711884E+03 0.37353833136E+03 0.44040753614E+03
 0.49270537520E+03 0.52590706858E+03 0.39914051143E+03 0.38986645365E+03 0.36292391239E+03
 0.32101931689E+03 0.26880712293E+03 0.21272448597E+03 0.15999611134E+03 0.11664255262E+03
 0.85280286212E+02 0.64099234353E+02 0.49045284367E+02 0.38408353850E+02 0.30876068974E+02
 0.25359072946E+02 0.21150870674E+02 0.17841242917E+02 0.15181239950E+02 0.12998571362E+02
 0.11169698667E+02 0.96142722741E+01 0.82866439782E+01 0.71617552506E+01 0.62227374514E+01
 0.54549936543E+01 0.48454414219E+01 0.43831560812E+01 0.40595268635E+01 0.38681228162E+01
 0.38048064427E+01 0.38681228162E+01 0.40595268635E+01 0.43831560812E+01 0.48454414219E+01
 0.54549936543E+01 0.62227374514E+01 0.71617552506E+01 0.82866439782E+01 0.96142722741E+01
 0.11169698667E+02 0.12998571362E+02 0.15181239950E+02 0.17841242917E+02 0.21150870674E+02
 0.25359072946E+02 0.30876068974E+02 0.38408353850E+02 0.49045284367E+02 0.64099234353E+02
 0.85280286212E+02 0.11664255262E+03 0.15999611134E+03 0.21272448597E+03 0.26880712293E+03
 0.32101931689E+03 0.36292391239E+03 0.38986645365E+03 0.27357914815E+03 0.26667711694E+03
 0.24686878088E+03 0.21682181925E+03 0.18077739276E+03 0.14390919417E+03 0.11107952429E+03
 0.85280286212E+02 0.66512125123E+02 0.52494134217E+02 0.42156503548E+02 0.34647407952E+02
 0.29080020859E+02 0.24790960551E+02 0.21364583309E+02 0.18551661751E+02 0.16188890134E+02
 0.14160167616E+02 0.12387910450E+02 0.10829039855E+02 0.94646123136E+01 0.82866439782E+01
 0.72887998097E+01 0.64632690172E+01 0.58014652464E+01 0.52954284879E+01 0.49386695482E+01
 0.47264963088E+01 0.46560862087E+01 0.47264963088E+01 0.49386695482E+01 0.52954284879E+01
 0.58014652464E+01 0.64632690172E+01 0.72887998097E+01 0.82866439782E+01 0.94646123136E+01
 0.10829039855E+02 0.12387910450E+02 0.14160167616E+02 0.16188890134E+02 0.18551661751E+02
 0.21364583309E+02 0.24790960551E+02 0.29080020859E+02 0.34647407952E+02 0.42156503548E+02
 0.52494134217E+02 0.66512125123E+02 0.85280286212E+02 0.11107952429E+03 0.14390919417E+03
 0.18077739276E+03 0.21682181925E+03 0.24686878088E+03 0.26667711694E+03 0.17371863332E+03
 0.16931366181E+03 0.15685137709E+03 0.13846399531E+03 0.11724027156E+03 0.96447866284E+02
 0.78509467140E+02 0.64099234353E+02 0.52494134217E+02 0.43512829824E+02 0.36757617511E+02
 0.31646652809E+02 0.27659559945E+02 0.24428748454E+02 0.21721364766E+02 0.19387104702E+02
 0.17322035121E+02 0.15457338084E+02 0.13757293542E+02 0.12212749431E+02 0.10829039855E+02
 0.96142722741E+01 0.85727069512E+01 0.77034962519E+01 0.70022654548E+01 0.64633455436E+01
 0.60816632954E+01 0.58537856819E+01 0.57779875945E+01 0.58537856819E+01 0.60816632954E+01
 0.64633455436E+01 0.70022654548E+01 0.77034962519E+01 0.85727069512E+01 0.96142722741E+01
 0.10829039855E+02 0.12212749431E+02 0.13757293542E+02 0.15457338084E+02 0.17322035121E+02
 0.19387104702E+02 0.21721364766E+02 0.24428748454E+02 0.27659559945E+02 0.31646652809E+02
 0.36757617511E+02 0.43512829824E+02 0.52494134217E+02 0.64099234353E+02 0.78509467140E+02
 0.96447866284E+02 0.11724027156E+03 0.13846399531E+03 0.15685137709E+03 0.16931366181E+03
 0.10668322729E+03 0.10434923171E+03 0.97821013218E+02 0.88376075350E+02 0.77678573006E+02
 0.67164877974E+02 0.57487182112E+02 0.49045284367E+02 0.42156503548E+02 0.36757617511E+02
 0.32565273828E+02 0.29248499573E+02 0.26531080514E+02 0.24216401922E+02 0.22169676389E+02
 0.20296375742E+02 0.18534253569E+02 0.16853678776E+02 0.15254748940E+02 0.13757293542E+02
 0.12387910450E+02 0.11169698667E+02 0.10117253831E+02 0.92361098091E+01 0.85247907566E+01
 0.79781633604E+01 0.75908581383E+01 0.73593824132E+01 0.72823181097E+01 0.73593824132E+01
 0.75908581383E+01 0.79781633604E+01 0.85247907566E+01 0.92361098091E+01 0.10117253831E+02
 0.11169698667E+02 0.12387910450E+02 0.13757293542E+02 0.15254748940E+02 0.16853678776E+02
 0.18534253569E+02 0.20296375742E+02 0.22169676389E+02 0.24216401922E+02 0.26531080514E+02
 0.29248499573E+02 0.32565273828E+02 0.36757617511E+02 0.42156503548E+02 0.49045284367E+02
 0.57487182112E+02 0.67164877974E+02 0.77678573006E+02 0.88376075350E+02 0.97821013218E+02
 0.10434923171E+03 0.68036266504E+02 0.66953624650E+02 0.63901117467E+02 0.59363751259E+02
 0.53937838038E+02 0.48290999403E+02 0.42995403623E+02 0.38408353850E+02 0.34647407952E+02
 0.31646652809E+02 0.29248499573E+02 0.27281038880E+02 0.25596833513E+02 0.24079500644E+02
 0.22639163670E+02 0.21212359198E+02 0.19767050128E+02 0.18304636022E+02 0.16853678776E+02
 0.15457338084E+02 0.14160167616E+02 0.12998571362E+02 0.11996000293E+02 0.11162149396E+02
 0.10495444928E+02 0.99879924426E+01 0.96310552516E+01 0.94186310829E+01 0.93480324176E+01
 0.94186310829E+01 0.96310552516E+01 0.99879924426E+01 0.10495444928E+02 0.11162149396E+02
 0.11996000293E+02 0.12998571362E+02 0.14160167616E+02 0.15457338084E+02 0.16853678776E+02
 0.18304636022E+02 0.19767050128E+02 0.21212359198E+02 0.22639163670E+02 0.24079500644E+02
 0.25596833513E+02 0.27281038880E+02 0.29248499573E+02 0.31646652809E+02 0.34647407952E+02
 0.38408353850E+02 0.42995403623E+02 0.48290999403E+02 0.53937838038E+02 0.59363751259E+02
 0.63901117467E+02 0.66953624650E+02 0.45481436069E+02 0.44943069049E+02 0.43414685139E+02
 0.41135113141E+02 0.38436031969E+02 0.35660522226E+02 0.33085684653E+02 0.30876068974E+02
 0.29080020859E+02 0.27659559945E+02 0.26531080514E+02 0.25596833513E+02 0.24760878557E+02
 0.23936075077E+02 0.23051481162E+02 0.22062657550E+02 0.20959702522E+02 0.19767050128E+02
 0.18534253569E+02 0.17322035121E+02 0.16188890134E+02 0.15181239950E+02 0.14327747702E+02
 0.13637897976E+02 0.13105120748E+02 0.12713663566E+02 0.12446478990E+02 0.12290756673E+02
 0.12239536677E+02 0.12290756673E+02 0.12446478990E+02 0.12713663566E+02 0.13105120748E+02
 0.13637897976E+02 0.14327747702E+02 0.15181239950E+02 0.16188890134E+02 0.17322035121E+02
 0.18534253569E+02 0.19767050128E+02 0.20959702522E+02 0.22062657550E+02 0.23051481162E+02
 0.23936075077E+02 0.24760878557E+02 0.25596833513E+02 0.26531080514E+02 0.27659559945E+02
 0.29080020859E+02 0.30876068974E+02 0.33085684653E+02 0.35660522226E+02 0.38436031969E+02
 0.41135113141E+02 0.43414685139E+02 0.44943069049E+02 0.31294036059E+02 0.31061351593E+02
 0.30403506350E+02 0.29431120507E+02 0.28297809318E+02 0.27163110031E+02 0.26157296903E+02
 0.25359072946E+02 0.24790960551E+02 0.24428748454E+02 0.24216401922E+02 0.24079500644E+02
 0.23936075077E+02 0.23707875442E+02 0.23333902665E+02 0.22783388558E+02 0.22062657550E+02
 0.21212359198E+02 0.20296375742E+02 0.19387104702E+02 0.18551661751E+02 0.17841242917E+02
 0.17284316927E+02 0.16884423799E+02 0.16623460242E+02 0.16469925354E+02 0.16389343536E+02
 0.16353041790E+02 0.16342958741E+02 0.16353041790E+02 0.16389343536E+02 0.16469925354E+02
 0.16623460242E+02 0.16884423799E+02 0.17284316927E+02 0.17841242917E+02 0.18551661751E+02
 0.19387104702E+02 0.20296375742E+02 0.21212359198E+02 0.22062657550E+02 0.22783388558E+02
 0.23333902665E+02 0.23707875442E+02 0.23936075077E+02 0.24079500644E+02 0.24216401922E+02
 0.24428748454E+02 0.24790960551E+02 0.25359072946E+02 0.26157296903E+02 0.27163110031E+02
 0.28297809318E+02 0.29431120507E+02 0.30403506350E+02 0.31061351593E+02 0.22296533599E+02
 0.22224979841E+02 0.22026651855E+02 0.21747484160E+02 0.21453917961E+02 0.21218733630E+02
 0.21104737289E+02 0.21150870674E+02 0.21364583309E+02 0.21721364766E+02 0.22169676389E+02
 0.22639163670E+02 0.23051481162E+02 0.23333902665E+02 0.23434369284E+02 0.23333902665E+02
 0.23051481162E+02 0.22639163670E+02 0.22169676389E+02 0.21721364766E+02 0.21364583309E+02
 0.21150870674E+02 0.21104737289E+02 0.21218733630E+02 0.21453917961E+02 0.21747484160E+02
 0.22026651855E+02 0.22224979841E+02 0.22296533599E+02 0.22224979841E+02 0.22026651855E+02
 0.21747484160E+02 0.21453917961E+02 0.21218733630E+02 0.21104737289E+02 0.21150870674E+02
 0.21364583309E+02 0.21721364766E+02 0.22169676389E+02 0.22639163670E+02 0.23051481162E+02
 0.23333902665E+02 0.23434369284E+02 0.23333902665E+02 0.23051481162E+02 0.22639163670E+02
 0.22169676389E+02 0.21721364766E+02 0.21364583309E+02 0.21150870674E+02 0.21104737289E+02
 0.21218733630E+02 0.21453917961E+02 0.21747484160E+02 0.22026651855E+02 0.22224979841E+02
 0.16342958741E+02 0.16353041790E+02 0.16389343536E+02 0.16469925354E+02 0.16623460242E+02
 0.16884423799E+02 0.17284316927E+02 0.17841242917E+02 0.18551661751E+02 0.19387104702E+02
 0.20296375742E+02 0.21212359198E+02 0.22062657550E+02 0.22783388558E+02 0.23333902665E+02
 0.23707875442E+02 0.23936075077E+02 0.24079500644E+02 0.24216401922E+02 0.24428748454E+02
 0.24790960551E+02 0.25359072946E+02 0.26157296903E+02 0.27163110031E+02 0.28297809318E+02
 0.29431120507E+02 0.30403506350E+02 0.31061351593E+02 0.31294036059E+02 0.31061351593E+02
 0.30403506350E+02 0.29431120507E+02 0.28297809318E+02 0.27163110031E+02 0.26157296903E+02
 0.25359072946E+02 0.24790960551E+02 0.24428748454E+02 0.24216401922E+02 0.24079500644E+02
 0.23936075077E+02 0.23707875442E+02 0.23333902665E+02 0.22783388558E+02 0.22062657550E+02
 0.21212359198E+02 0.20296375742E+02 0.19387104702E+02 0.18551661751E+02 0.17841242917E+02
 0.17284316927E+02 0.16884423799E+02 0.16623460242E+02 0.16469925354E+02 0.16389343536E+02
 0.16353041790E+02 0.12239536677E+02 0.12290756673E+02 0.12446478990E+02 0.12713663566E+02
 0.13105120748E+02 0.13637897976E+02 0.14327747702E+02 0.15181239950E+02 0.16188890134E+02
 0.17322035121E+02 0.18534253569E+02 0.19767050128E+02 0.20959702522E+02 0.22062657550E+02
 0.23051481162E+02 0.23936075077E+02 0.24760878557E+02 0.25596833513E+02 0.26531080514E+02
 0.27659559945E+02 0.29080020859E+02 0.30876068974E+02 0.33085684653E+02 0.35660522226E+02
 0.38436031969E+02 0.41135113141E+02 0.43414685139E+02 0.44943069049E+02 0.45481436069E+02
 0.44943069049E+02 0.43414685139E+02 0.41135113141E+02 0.38436031969E+02 0.35660522226E+02
 0.33085684653E+02 0.30876068974E+02 0.29080020859E+02 0.27659559945E+02 0.26531080514E+02
 0.25596833513E+02 0.24760878557E+02 0.23936075077E+02 0.23051481162E+02 0.22062657550E+02
 0.20959702522E+02 0.19767050128E+02 0.18534253569E+02 0.17322035121E+02 0.16188890134E+02
 0.15181239950E+02 0.14327747702E+02 0.13637897976E+02 0.13105120748E+02 0.12713663566E+02
 0.12446478990E+02 0.12290756673E+02 0.93480324176E+01 0.94186310829E+01 0.96310552516E+01
 0.99879924426E+01 0.10495444928E+02 0.11162149396E+02 0.11996000293E+02 0.12998571362E+02
 0.14160167616E+02 0.15457338084E+02 0.16853678776E+02 0.18304636022E+02 0.19767050128E+02
 0.21212359198E+02 0.22639163670E+02 0.24079500644E+02 0.25596833513E+02 0.27281038880E+02
 0.29248499573E+02 0.31646652809E+02 0.34647407952E+02 0.38408353850E+02 0.42995403623E+02
 0.48290999403E+02 0.53937838038E+02 0.59363751259E+02 0.63901117467E+02 0.66953624650E+02
 0.68036266504E+02 0.66953624650E+02 0.63901117467E+02 0.59363751259E+02 0.53937838038E+02
 0.48290999403E+02 0.42995403623E+02 0.38408353850E+02 0.34647407952E+02 0.31646652809E+02
 0.29248499573E+02 0.27281038880E+02 0.25596833513E+02 0.24079500644E+02 0.22639163670E+02
 0.21212359198E+02 0.19767050128E+02 0.18304636022E+02 0.16853678776E+02 0.15457338084E+02
 0.14160167616E+02 0.12998571362E+02 0.11996000293E+02 0.11162149396E+02 0.10495444928E+02
 0.99879924426E+01 0.96310552516E+01 0.94186310829E+01 0.72823181097E+01 0.73593824132E+01
 0.75908581383E+01 0.79781633604E+01 0.85247907566E+01 0.92361098091E+01 0.10117253831E+02
 0.11169698667E+02 0.12387910450E+02 0.13757293542E+02 0.15254748940E+02 0.16853678776E+02
 0.18534253569E+02 0.20296375742E+02 0.22169676389E+02 0.24216401922E+02 0.26531080514E+02
 0.29248499573E+02 0.32565273828E+02 0.36757617511E+02 0.42156503548E+02 0.49045284367E+02
 0.57487182112E+02 0.67164877974E+02 0.77678573006E+02 0.88376075350E+02 0.97821013218E+02
 0.10434923171E+03 0.10668322729E+03 0.10434923171E+03 0.97821013218E+02 0.88376075350E+02
 0.77678573006E+02 0.67164877974E+02 0.57487182112E+02 0.49045284367E+02 0.42156503548E+02
 0.36757617511E+02 0.32565273828E+02 0.29248499573E+02 0.26531080514E+02 0.24216401922E+02
 0.22169676389E+02 0.20296375742E+02 0.18534253569E+02 0.16853678776E+02 0.15254748940E+02
 0.13757293542E+02 0.12387910450E+02 0.11169698667E+02 0.10117253831E+02 0.92361098091E+01
 0.85247907566E+01 0.79781633604E+01 0.75908581383E+01 0.73593824132E+01 0.57779875945E+01
 0.58537856819E+01 0.60816632954E+01 0.64633455436E+01 0.70022654548E+01 0.77034962519E+01
 0.85727069512E+01 0.96142722741E+01 0.10829039855E+02 0.12212749431E+02 0.13757293542E+02
 0.15457338084E+02 0.17322035121E+02 0.19387104702E+02 0.21721364766E+02 0.24428748454E+02
 0.27659559945E+02 0.31646652809E+02 0.36757617511E+02 0.43512829824E+02 0.52494134217E+02
 0.64099234353E+02 0.78509467140E+02 0.96447866284E+02 0.11724027156E+03 0.13846399531E+03
 0.15685137709E+03 0.16931366181E+03 0.17371863332E+03 0.16931366181E+03 0.15685137709E+03
 0.13846399531E+03 0.11724027156E+03 0.96447866284E+02 0.78509467140E+02 0.64099234353E+02
 0.52494134217E+02 0.43512829824E+02 0.36757617511E+02 0.31646652809E+02 0.27659559945E+02
 0.24428748454E+02 0.21721364766E+02 0.19387104702E+02 0.17322035121E+02 0.15457338084E+02
 0.13757293542E+02 0.12212749431E+02 0.10829039855E+02 0.96142722741E+01 0.85727069512E+01
 0.77034962519E+01 0.70022654548E+01 0.64633455436E+01 0.60816632954E+01 0.58537856819E+01
 0.46560862087E+01 0.47264963088E+01 0.49386695482E+01 0.52954284879E+01 0.58014652464E+01
 0.64632690172E+01 0.72887998097E+01 0.82866439782E+01 0.94646123136E+01 0.10829039855E+02
 0.12387910450E+02 0.14160167616E+02 0.16188890134E+02 0.18551661751E+02 0.21364583309E+02
 0.24790960551E+02 0.29080020859E+02 0.34647407952E+02 0.42156503548E+02 0.52494134217E+02
 0.66512125123E+02 0.85280286212E+02 0.11107952429E+03 0.14390919417E+03 0.18077739276E+03
 0.21682181925E+03 0.24686878088E+03 0.26667711694E+03 0.27357914815E+03 0.26667711694E+03
 0.24686878088E+03 0.21682181925E+03 0.18077739276E+03 0.14390919417E+03 0.11107952429E+03
 0.85280286212E+02 0.66512125123E+02 0.52494134217E+02 0.42156503548E+02 0.34647407952E+02
 0.29080020859E+02 0.24790960551E+02 0.21364583309E+02 0.18551661751E+02 0.16188890134E+02
 0.14160167616E+02 0.12387910450E+02 0.10829039855E+02 0.94646123136E+01 0.82866439782E+01
 0.72887998097E+01 0.64632690172E+01 0.58014652464E+01 0.52954284879E+01 0.49386695482E+01
 0.47264963088E+01 0.38048064427E+01 0.38681228162E+01 0.40595268635E+01 0.43831560812E+01
 0.48454414219E+01 0.54549936543E+01 0.62227374514E+01 0.71617552506E+01 0.82866439782E+01
 0.96142722741E+01 0.11169698667E+02 0.12998571362E+02 0.15181239950E+02 0.17841242917E+02
 0.21150870674E+02 0.25359072946E+02 0.30876068974E+02 0.38408353850E+02 0.49045284367E+02
 0.64099234353E+02 0.85280286212E+02 0.11664255262E+03 0.15999611134E+03 0.21272448597E+03
 0.26880712293E+03 0.32101931689E+03 0.36292391239E+03 0.38986645365E+03 0.39914051143E+03
 0.38986645365E+03 0.36292391239E+03 0.32101931689E+03 0.26880712293E+03 0.21272448597E+03
 0.15999611134E+03 0.11664255262E+03 0.85280286212E+02 0.64099234353E+02 0.49045284367E+02
 0.38408353850E+02 0.30876068974E+02 0.25359072946E+02 0.21150870674E+02 0.17841242917E+02
 0.15181239950E+02 0.12998571362E+02 0.11169698667E+02 0.96142722741E+01 0.82866439782E+01
 0.71617552506E+01 0.62227374514E+01 0.54549936543E+01 0.48454414219E+01 0.43831560812E+01
 0.40595268635E+01 0.38681228162E+01 0.31563517418E+01 0.32123184484E+01 0.33820953163E+01
 0.36709621823E+01 0.40870186727E+01 0.46410941730E+01 0.53471843023E+01 0.62227374514E+01
 0.72887998097E+01 0.85727069512E+01 0.10117253831E+02 0.11996000293E+02 0.14327747702E+02
 0.17284316927E+02 0.21104737289E+02 0.26157296903E+02 0.33085684653E+02 0.42995403623E+02
 0.57487182112E+02 0.78509467140E+02 0.11107952429E+03 0.15999611134E+03 0.22457898462E+03
 0.29872711884E+03 0.37353833136E+03 0.44040753614E+03 0.49270537520E+03 0.52590706858E+03
 0.53728686459E+03 0.52590706858E+03 0.49270537520E+03 0.44040753614E+03 0.37353833136E+03
 0.29872711884E+03 0.22457898462E+03 0.15999611134E+03 0.11107952429E+03 0.78509467140E+02
 0.57487182112E+02 0.42995403623E+02 0.33085684653E+02 0.26157296903E+02 0.21104737289E+02
 0.17284316927E+02 0.14327747702E+02 0.11996000293E+02 0.10117253831E+02 0.85727069512E+01
 0.72887998097E+01 0.62227374514E+01 0.53471843023E+01 0.46410941730E+01 0.40870186727E+01
 0.36709621823E+01 0.33820953163E+01 0.32123184484E+01 0.26660316167E+01 0.27152291088E+01
 0.28649503094E+01 0.31212249678E+01 0.34934436210E+01 0.39944290099E+01 0.46410941730E+01
 0.54549936543E+01 0.64632690172E+01 0.77034962519E+01 0.92361098091E+01 0.11162149396E+02
 0.13637897976E+02 0.16884423799E+02 0.21218733630E+02 0.27163110031E+02 0.35660522226E+02
 0.48290999403E+02 0.67164877974E+02 0.96447866284E+02 0.14390919417E+03 0.21272448597E+03
 0.29872711884E+03 0.39241390157E+03 0.48327582639E+03 0.56291605638E+03 0.62523306911E+03
 0.66526636262E+03 0.67913013918E+03 0.66526636262E+03 0.62523306911E+03 0.56291605638E+03
 0.48327582639E+03 0.39241390157E+03 0.29872711884E+03 0.21272448597E+03 0.14390919417E+03
 0.96447866284E+02 0.67164877974E+02 0.48290999403E+02 0.35660522226E+02 0.27163110031E+02
 0.21218733630E+02 0.16884423799E+02 0.13637897976E+02 0.11162149396E+02 0.92361098091E+01
 0.77034962519E+01 0.64632690172E+01 0.54549936543E+01 0.46410941730E+01 0.39944290099E+01
 0.34934436210E+01 0.31212249678E+01 0.28649503094E+01 0.27152291088E+01 0.23010252116E+01
 0.23445385526E+01 0.24772655731E+01 0.27055131019E+01 0.30394394050E+01 0.34934436210E+01
 0.40870186727E+01 0.48454414219E+01 0.58014652464E+01 0.70022654548E+01 0.85247907566E+01
 0.10495444928E+02 0.13105120748E+02 0.16623460242E+02 0.21453917961E+02 0.28297809318E+02
 0.38436031969E+02 0.53937838038E+02 0.77678573006E+02 0.11724027156E+03 0.18077739276E+03
 0.26880712293E+03 0.37353833136E+03 0.48327582639E+03 0.58794677825E+03 0.68082455214E+03
 0.75602803957E+03 0.80618293463E+03 0.82395808152E+03 0.80618293463E+03 0.75602803957E+03
 0.68082455214E+03 0.58794677825E+03 0.48327582639E+03 0.37353833136E+03 0.26880712293E+03
 0.18077739276E+03 0.11724027156E+03 0.77678573006E+02 0.53937838038E+02 0.38436031969E+02
 0.28297809318E+02 0.21453917961E+02 0.16623460242E+02 0.13105120748E+02 0.10495444928E+02
 0.85247907566E+01 0.70022654548E+01 0.58014652464E+01 0.48454414219E+01 0.40870186727E+01
 0.34934436210E+01 0.30394394050E+01 0.27055131019E+01 0.24772655731E+01 0.23445385526E+01
 0.20371895533E+01 0.20763763617E+01 0.21960148868E+01 0.24022617860E+01 0.27055131019E+01
 0.31212249678E+01 0.36709621823E+01 0.43831560812E+01 0.52954284879E+01 0.64633455436E+01
 0.79781633604E+01 0.99879924426E+01 0.12713663566E+02 0.16469925354E+02 0.21747484160E+02
 0.29431120507E+02 0.41135113141E+02 0.59363751259E+02 0.88376075350E+02 0.13846399531E+03
 0.21682181925E+03 0.32101931689E+03 0.44040753614E+03 0.56291605638E+03 0.68082455214E+03
 0.78975271825E+03 0.88282210406E+03 0.94772540985E+03 0.97127922629E+03 0.94772540985E+03
 0.88282210406E+03 0.78975271825E+03 0.68082455214E+03 0.56291605638E+03 0.44040753614E+03
 0.32101931689E+03 0.21682181925E+03 0.13846399531E+03 0.88376075350E+02 0.59363751259E+02
 0.41135113141E+02 0.29431120507E+02 0.21747484160E+02 0.16469925354E+02 0.12713663566E+02
 0.99879924426E+01 0.79781633604E+01 0.64633455436E+01 0.52954284879E+01 0.43831560812E+01
 0.36709621823E+01 0.31212249678E+01 0.27055131019E+01 0.24022617860E+01 0.21960148868E+01
 0.20763763617E+01 0.18582316814E+01 0.18944988640E+01 0.20051766835E+01 0.21960148868E+01
 0.24772655731E+01 0.28649503094E+01 0.33820953163E+01 0.40595268635E+01 0.49386695482E+01
 0.60816632954E+01 0.75908581383E+01 0.96310552516E+01 0.12446478990E+02 0.16389343536E+02
 0.22026651855E+02 0.30403506350E+02 0.43414685139E+02 0.63901117467E+02 0.97821013218E+02
 0.15685137709E+03 0.24686878088E+03 0.36292391239E+03 0.49270537520E+03 0.62523306911E+03
 0.75602803957E+03 0.88282210406E+03 0.99656652035E+03 0.10785990946E+04 0.11088466278E+04
 0.10785990946E+04 0.99656652035E+03 0.88282210406E+03 0.75602803957E+03 0.62523306911E+03
 0.49270537520E+03 0.36292391239E+03 0.24686878088E+03 0.15685137709E+03 0.97821013218E+02
 0.63901117467E+02 0.43414685139E+02 0.30403506350E+02 0.22026651855E+02 0.16389343536E+02
 0.12446478990E+02 0.96310552516E+01 0.75908581383E+01 0.60816632954E+01 0.49386695482E+01
 0.40595268635E+01 0.33820953163E+01 0.28649503094E+01 0.24772655731E+01 0.21960148868E+01
 0.20051766835E+01 0.18944988640E+01 0.17542835733E+01 0.17889154221E+01 0.18944988640E+01
 0.20763763617E+01 0.23445385526E+01 0.27152291088E+01 0.32123184484E+01 0.38681228162E+01
 0.47264963088E+01 0.58537856819E+01 0.73593824132E+01 0.94186310829E+01 0.12290756673E+02
 0.16353041790E+02 0.22224979841E+02 0.31061351593E+02 0.44943069049E+02 0.66953624650E+02
 0.10434923171E+03 0.16931366181E+03 0.26667711694E+03 0.38986645365E+03 0.52590706858E+03
 0.66526636262E+03 0.80618293463E+03 0.94772540985E+03 0.10785990946E+04 0.11747322561E+04
 0.12104637099E+04 0.11747322561E+04 0.10785990946E+04 0.94772540985E+03 0.80618293463E+03
 0.66526636262E+03 0.52590706858E+03 0.38986645365E+03 0.26667711694E+03 0.16931366181E+03
 0.10434923171E+03 0.66953624650E+02 0.44943069049E+02 0.31061351593E+02 0.22224979841E+02
 0.16353041790E+02 0.12290756673E+02 0.94186310829E+01 0.73593824132E+01 0.58537856819E+01
 0.47264963088E+01 0.38681228162E+01 0.32123184484E+01 0.27152291088E+01 0.23445385526E+01
 0.20763763617E+01 0.18944988640E+01 0.17889154221E+01 0.17201713827E+01 0.17542835733E+01
 0.18582316814E+01 0.20371895533E+01 0.23010252116E+01 0.26660316167E+01 0.31563517418E+01
 0.38048064427E+01 0.46560862087E+01 0.57779875945E+01 0.72823181097E+01 0.93480324176E+01
 0.12239536677E+02 0.16342958741E+02 0.22296533599E+02 0.31294036059E+02 0.45481436069E+02
 0.68036266504E+02 0.10668322729E+03 0.17371863332E+03 0.27357914815E+03 0.39914051143E+03
 0.53728686459E+03 0.67913013918E+03 0.82395808152E+03 0.97127922629E+03 0.11088466278E+04
 0.12104637099E+04 0.12483217865E+04 0.12104637099E+04 0.11088466278E+04 0.97127922629E+03
 0.82395808152E+03 0.67913013918E+03 0.53728686459E+03 0.39914051143E+03 0.27357914815E+03
 0.17371863332E+03 0.10668322729E+03 0.68036266504E+02 0.45481436069E+02 0.31294036059E+02
 0.22296533599E+02 0.16342958741E+02 0.12239536677E+02 0.93480324176E+01 0.72823181097E+01
 0.57779875945E+01 0.46560862087E+01 0.38048064427E+01 0.31563517418E+01 0.26660316167E+01