unknown system                          
   5.94319000000000     
     1.000000    0.000000    0.000000
     0.000000    1.000000    0.000000
     0.000000    0.000000    1.000000
   Cd   S 
     4     4
Direct
  0.000000  0.000000  0.000000
  0.000000  0.500000  0.500000
  0.500000  0.000000  0.500000
  0.500000  0.500000  0.000000
  0.250000  0.250000  0.250000
  0.750000  0.750000  0.250000
  0.750000  0.250000  0.750000
  0.250000  0.750000  0.750000
 
   56   56   56
 0.20897315316E+04 0.20079376700E+04 0.17866591648E+04 0.14834787841E+04 0.11581319851E+04
 0.85052940781E+03 0.58145600684E+03 0.36472802718E+03 0.21113718271E+03 0.12041364587E+03
 0.74845152519E+02 0.48881662514E+02 0.33228436575E+02 0.23841616240E+02 0.17839608387E+02
 0.13723724072E+02 0.10793344553E+02 0.86640363472E+01 0.70710233545E+01 0.58349540823E+01
 0.48523788196E+01 0.40688737120E+01 0.34497554558E+01 0.29659806430E+01 0.25940203668E+01
 0.23178926498E+01 0.21277227982E+01 0.20168311046E+01 0.19804854671E+01 0.20168311046E+01
 0.21277227982E+01 0.23178926498E+01 0.25940203668E+01 0.29659806430E+01 0.34497554558E+01
 0.40688737120E+01 0.48523788196E+01 0.58349540823E+01 0.70710233545E+01 0.86640363472E+01
 0.10793344553E+02 0.13723724072E+02 0.17839608387E+02 0.23841616240E+02 0.33228436575E+02
 0.48881662514E+02 0.74845152519E+02 0.12041364587E+03 0.21113718271E+03 0.36472802718E+03
 0.58145600684E+03 0.85052940781E+03 0.11581319851E+04 0.14834787841E+04 0.17866591648E+04
 0.20079376700E+04 0.20079376700E+04 0.19303906731E+04 0.17202091030E+04 0.14311003019E+04
 0.11190513219E+04 0.82220225109E+03 0.56157384278E+03 0.35181273526E+03 0.20389827258E+03
 0.11710807483E+03 0.73426806067E+02 0.48175184018E+02 0.32941200865E+02 0.23764288876E+02
 0.17861840866E+02 0.13794244285E+02 0.10886678756E+02 0.87649700270E+01 0.71700307615E+01
 0.59268501345E+01 0.49349916404E+01 0.41417052032E+01 0.35131625854E+01 0.30209101842E+01
 0.26419076701E+01 0.23604614429E+01 0.21667170802E+01 0.20538182639E+01 0.20168311046E+01
 0.20538182639E+01 0.21667170802E+01 0.23604614429E+01 0.26419076701E+01 0.30209101842E+01
 0.35131625854E+01 0.41417052032E+01 0.49349916404E+01 0.59268501345E+01 0.71700307615E+01
 0.87649700270E+01 0.10886678756E+02 0.13794244285E+02 0.17861840866E+02 0.23764288876E+02
 0.32941200865E+02 0.48175184018E+02 0.73426806067E+02 0.11710807483E+03 0.20389827258E+03
 0.35181273526E+03 0.56157384278E+03 0.82220225109E+03 0.11190513219E+04 0.14311003019E+04
 0.17202091030E+04 0.19303906731E+04 0.17866591648E+04 0.17202091030E+04 0.15390500991E+04
 0.12868808327E+04 0.10101193312E+04 0.74247209672E+03 0.50551111635E+03 0.31566903677E+03
 0.18392769193E+03 0.10809523299E+03 0.69414638172E+02 0.46191814285E+02 0.32140350289E+02
 0.23554921002E+02 0.17935469155E+02 0.14006915901E+02 0.11165582174E+02 0.90659534907E+01
 0.74654123197E+01 0.62016151119E+01 0.51828289983E+01 0.43610803552E+01 0.37049772716E+01
 0.31877776997E+01 0.27878801077E+01 0.24904689195E+01 0.22858305036E+01 0.21667170802E+01
 0.21277227982E+01 0.21667170802E+01 0.22858305036E+01 0.24904689195E+01 0.27878801077E+01
 0.31877776997E+01 0.37049772716E+01 0.43610803552E+01 0.51828289983E+01 0.62016151119E+01
 0.74654123197E+01 0.90659534907E+01 0.11165582174E+02 0.14006915901E+02 0.17935469155E+02
 0.23554921002E+02 0.32140350289E+02 0.46191814285E+02 0.69414638172E+02 0.10809523299E+03
 0.18392769193E+03 0.31566903677E+03 0.50551111635E+03 0.74247209672E+03 0.10101193312E+04
 0.12868808327E+04 0.15390500991E+04 0.17202091030E+04 0.14834787841E+04 0.14311003019E+04
 0.12868808327E+04 0.10822746187E+04 0.85222703671E+03 0.62523397097E+03 0.42317507917E+03
 0.26353361890E+03 0.15594277636E+03 0.95667319588E+02 0.63467538015E+02 0.43299315027E+02
 0.30988226940E+02 0.23274336813E+02 0.18080128384E+02 0.14365950247E+02 0.11628206549E+02
 0.95630558806E+01 0.79535755281E+01 0.66574107603E+01 0.55962958558E+01 0.47295073955E+01
 0.40293823209E+01 0.34719010527E+01 0.30377940327E+01 0.27137389069E+01 0.24904689195E+01
 0.23604614429E+01 0.23178926498E+01 0.23604614429E+01 0.24904689195E+01 0.27137389069E+01
 0.30377940327E+01 0.34719010527E+01 0.40293823209E+01 0.47295073955E+01 0.55962958558E+01
 0.66574107603E+01 0.79535755281E+01 0.95630558806E+01 0.11628206549E+02 0.14365950247E+02
 0.18080128384E+02 0.23274336813E+02 0.30988226940E+02 0.43299315027E+02 0.63467538015E+02
 0.95667319588E+02 0.15594277636E+03 0.26353361890E+03 0.42317507917E+03 0.62523397097E+03
 0.85222703671E+03 0.10822746187E+04 0.12868808327E+04 0.14311003019E+04 0.11581319851E+04
 0.11190513219E+04 0.10101193312E+04 0.85222703671E+03 0.67058928914E+03 0.48907663929E+03
 0.32868192661E+03 0.20560154868E+03 0.12611513239E+03 0.82364572728E+02 0.56526132325E+02
 0.39988203839E+02 0.29696670473E+02 0.23003449376E+02 0.18324457717E+02 0.14879876735E+02
 0.12274615069E+02 0.10253145394E+02 0.86314629967E+01 0.72930524316E+01 0.61766238083E+01
 0.52504504755E+01 0.44916533210E+01 0.38798804221E+01 0.33990067723E+01 0.30377940327E+01
 0.27878801077E+01 0.26419076701E+01 0.25940203668E+01 0.26419076701E+01 0.27878801077E+01
 0.30377940327E+01 0.33990067723E+01 0.38798804221E+01 0.44916533210E+01 0.52504504755E+01
 0.61766238083E+01 0.72930524316E+01 0.86314629967E+01 0.10253145394E+02 0.12274615069E+02
 0.14879876735E+02 0.18324457717E+02 0.23003449376E+02 0.29696670473E+02 0.39988203839E+02
 0.56526132325E+02 0.82364572728E+02 0.12611513239E+03 0.20560154868E+03 0.32868192661E+03
 0.48907663929E+03 0.67058928914E+03 0.85222703671E+03 0.10101193312E+04 0.11190513219E+04
 0.85052940781E+03 0.82220225109E+03 0.74247209672E+03 0.62523397097E+03 0.48907663929E+03
 0.35380950604E+03 0.23750177562E+03 0.15231856873E+03 0.99800534634E+02 0.69550662260E+02
 0.49572842133E+02 0.36731267092E+02 0.28465116806E+02 0.22821183091E+02 0.18699568351E+02
 0.15560015150E+02 0.13106839832E+02 0.11134472048E+02 0.94970636291E+01 0.81080655571E+01
 0.69253734564E+01 0.59274288408E+01 0.50971287594E+01 0.44187186836E+01 0.38798804221E+01
 0.34719010527E+01 0.31877776997E+01 0.30209101842E+01 0.29659806430E+01 0.30209101842E+01
 0.31877776997E+01 0.34719010527E+01 0.38798804221E+01 0.44187186836E+01 0.50971287594E+01
 0.59274288408E+01 0.69253734564E+01 0.81080655571E+01 0.94970636291E+01 0.11134472048E+02
 0.13106839832E+02 0.15560015150E+02 0.18699568351E+02 0.22821183091E+02 0.28465116806E+02
 0.36731267092E+02 0.49572842133E+02 0.69550662260E+02 0.99800534634E+02 0.15231856873E+03
 0.23750177562E+03 0.35380950604E+03 0.48907663929E+03 0.62523397097E+03 0.74247209672E+03
 0.82220225109E+03 0.58145600684E+03 0.56157384278E+03 0.50551111635E+03 0.42317507917E+03
 0.32868192661E+03 0.23750177562E+03 0.16276283103E+03 0.11098007633E+03 0.79181453359E+02
 0.57864370974E+02 0.43373446694E+02 0.33865059385E+02 0.27433096300E+02 0.22785764272E+02
 0.19229822753E+02 0.16414090489E+02 0.14123888587E+02 0.12202836590E+02 0.10546592915E+02
 0.91007630929E+01 0.78433717759E+01 0.67638139683E+01 0.58518194047E+01 0.50971287594E+01
 0.44916533210E+01 0.40293823209E+01 0.37049772716E+01 0.35131625854E+01 0.34497554558E+01
 0.35131625854E+01 0.37049772716E+01 0.40293823209E+01 0.44916533210E+01 0.50971287594E+01
 0.58518194047E+01 0.67638139683E+01 0.78433717759E+01 0.91007630929E+01 0.10546592915E+02
 0.12202836590E+02 0.14123888587E+02 0.16414090489E+02 0.19229822753E+02 0.22785764272E+02
 0.27433096300E+02 0.33865059385E+02 0.43373446694E+02 0.57864370974E+02 0.79181453359E+02
 0.11098007633E+03 0.16276283103E+03 0.23750177562E+03 0.32868192661E+03 0.42317507917E+03
 0.50551111635E+03 0.56157384278E+03 0.36472802718E+03 0.35181273526E+03 0.31566903677E+03
 0.26353361890E+03 0.20560154868E+03 0.15231856873E+03 0.11098007633E+03 0.82758284010E+02
 0.62718292130E+02 0.48220677386E+02 0.38315365532E+02 0.31538704374E+02 0.26661861577E+02
 0.22923356559E+02 0.19922114636E+02 0.17436239458E+02 0.15313491029E+02 0.13445401359E+02
 0.11770272733E+02 0.10265807494E+02 0.89298585685E+01 0.77632995738E+01 0.67638139683E+01
 0.59274288408E+01 0.52504504755E+01 0.47295073955E+01 0.43610803552E+01 0.41417052032E+01
 0.40688737120E+01 0.41417052032E+01 0.43610803552E+01 0.47295073955E+01 0.52504504755E+01
 0.59274288408E+01 0.67638139683E+01 0.77632995738E+01 0.89298585685E+01 0.10265807494E+02
 0.11770272733E+02 0.13445401359E+02 0.15313491029E+02 0.17436239458E+02 0.19922114636E+02
 0.22923356559E+02 0.26661861577E+02 0.31538704374E+02 0.38315365532E+02 0.48220677386E+02
 0.62718292130E+02 0.82758284010E+02 0.11098007633E+03 0.15231856873E+03 0.20560154868E+03
 0.26353361890E+03 0.31566903677E+03 0.35181273526E+03 0.21113718271E+03 0.20389827258E+03
 0.18392769193E+03 0.15594277636E+03 0.12611513239E+03 0.99800534634E+02 0.79181453359E+02
 0.62718292130E+02 0.50006915416E+02 0.40858435571E+02 0.34414188404E+02 0.29738756293E+02
 0.26143661285E+02 0.23224152557E+02 0.20756667944E+02 0.18598062686E+02 0.16645346306E+02
 0.14836101288E+02 0.13149439033E+02 0.11592611413E+02 0.10181853736E+02 0.89298585685E+01
 0.78433717759E+01 0.69253734564E+01 0.61766238083E+01 0.55962958558E+01 0.51828289983E+01
 0.49349916404E+01 0.48523788196E+01 0.49349916404E+01 0.51828289983E+01 0.55962958558E+01
 0.61766238083E+01 0.69253734564E+01 0.78433717759E+01 0.89298585685E+01 0.10181853736E+02
 0.11592611413E+02 0.13149439033E+02 0.14836101288E+02 0.16645346306E+02 0.18598062686E+02
 0.20756667944E+02 0.23224152557E+02 0.26143661285E+02 0.29738756293E+02 0.34414188404E+02
 0.40858435571E+02 0.50006915416E+02 0.62718292130E+02 0.79181453359E+02 0.99800534634E+02
 0.12611513239E+03 0.15594277636E+03 0.18392769193E+03 0.20389827258E+03 0.12041364587E+03
 0.11710807483E+03 0.10809523299E+03 0.95667319588E+02 0.82364572728E+02 0.69550662260E+02
 0.57864370974E+02 0.48220677386E+02 0.40858435571E+02 0.35452596369E+02 0.31453022761E+02
 0.28358313238E+02 0.25824521343E+02 0.23644019295E+02 0.21683245327E+02 0.19845674467E+02
 0.18069725751E+02 0.16334947556E+02 0.14655812936E+02 0.13064232582E+02 0.11592611413E+02
 0.10265807494E+02 0.91007630929E+01 0.81080655571E+01 0.72930524316E+01 0.66574107603E+01
 0.62016151119E+01 0.59268501345E+01 0.58349540823E+01 0.59268501345E+01 0.62016151119E+01
 0.66574107603E+01 0.72930524316E+01 0.81080655571E+01 0.91007630929E+01 0.10265807494E+02
 0.11592611413E+02 0.13064232582E+02 0.14655812936E+02 0.16334947556E+02 0.18069725751E+02
 0.19845674467E+02 0.21683245327E+02 0.23644019295E+02 0.25824521343E+02 0.28358313238E+02
 0.31453022761E+02 0.35452596369E+02 0.40858435571E+02 0.48220677386E+02 0.57864370974E+02
 0.69550662260E+02 0.82364572728E+02 0.95667319588E+02 0.10809523299E+03 0.11710807483E+03
 0.74845152519E+02 0.73426806067E+02 0.69414638172E+02 0.63467538015E+02 0.56526132325E+02
 0.49572842133E+02 0.43373446694E+02 0.38315365532E+02 0.34414188404E+02 0.31453022761E+02
 0.29149640243E+02 0.27264004549E+02 0.25624994457E+02 0.24110126650E+02 0.22625136321E+02
 0.21104513721E+02 0.19521736650E+02 0.17890427009E+02 0.16251654210E+02 0.14655812936E+02
 0.13149439033E+02 0.11770272733E+02 0.10546592915E+02 0.94970636291E+01 0.86314629967E+01
 0.79535755281E+01 0.74654123197E+01 0.71700307615E+01 0.70710233545E+01 0.71700307615E+01
 0.74654123197E+01 0.79535755281E+01 0.86314629967E+01 0.94970636291E+01 0.10546592915E+02
 0.11770272733E+02 0.13149439033E+02 0.14655812936E+02 0.16251654210E+02 0.17890427009E+02
 0.19521736650E+02 0.21104513721E+02 0.22625136321E+02 0.24110126650E+02 0.25624994457E+02
 0.27264004549E+02 0.29149640243E+02 0.31453022761E+02 0.34414188404E+02 0.38315365532E+02
 0.43373446694E+02 0.49572842133E+02 0.56526132325E+02 0.63467538015E+02 0.69414638172E+02
 0.73426806067E+02 0.48881662514E+02 0.48175184018E+02 0.46191814285E+02 0.43299315027E+02
 0.39988203839E+02 0.36731267092E+02 0.33865059385E+02 0.31538704374E+02 0.29738756293E+02
 0.28358313238E+02 0.27264004549E+02 0.26331700548E+02 0.25452532508E+02 0.24530728485E+02
 0.23490446995E+02 0.22289706199E+02 0.20928376720E+02 0.19442741925E+02 0.17890427009E+02
 0.16334947556E+02 0.14836101288E+02 0.13445401359E+02 0.12202836590E+02 0.11134472048E+02
 0.10253145394E+02 0.95630558806E+01 0.90659534907E+01 0.87649700270E+01 0.86640363472E+01
 0.87649700270E+01 0.90659534907E+01 0.95630558806E+01 0.10253145394E+02 0.11134472048E+02
 0.12202836590E+02 0.13445401359E+02 0.14836101288E+02 0.16334947556E+02 0.17890427009E+02
 0.19442741925E+02 0.20928376720E+02 0.22289706199E+02 0.23490446995E+02 0.24530728485E+02
 0.25452532508E+02 0.26331700548E+02 0.27264004549E+02 0.28358313238E+02 0.29738756293E+02
 0.31538704374E+02 0.33865059385E+02 0.36731267092E+02 0.39988203839E+02 0.43299315027E+02
 0.46191814285E+02 0.48175184018E+02 0.33228436575E+02 0.32941200865E+02 0.32140350289E+02
 0.30988226940E+02 0.29696670473E+02 0.28465116806E+02 0.27433096300E+02 0.26661861577E+02
 0.26143661285E+02 0.25824521343E+02 0.25624994457E+02 0.25452532508E+02 0.25210277747E+02
 0.24809745369E+02 0.24187449130E+02 0.23317862064E+02 0.22215827079E+02 0.20928376720E+02
 0.19521736650E+02 0.18069725751E+02 0.16645346306E+02 0.15313491029E+02 0.14123888587E+02
 0.13106839832E+02 0.12274615069E+02 0.11628206549E+02 0.11165582174E+02 0.10886678756E+02
 0.10793344553E+02 0.10886678756E+02 0.11165582174E+02 0.11628206549E+02 0.12274615069E+02
 0.13106839832E+02 0.14123888587E+02 0.15313491029E+02 0.16645346306E+02 0.18069725751E+02
 0.19521736650E+02 0.20928376720E+02 0.22215827079E+02 0.23317862064E+02 0.24187449130E+02
 0.24809745369E+02 0.25210277747E+02 0.25452532508E+02 0.25624994457E+02 0.25824521343E+02
 0.26143661285E+02 0.26661861577E+02 0.27433096300E+02 0.28465116806E+02 0.29696670473E+02
 0.30988226940E+02 0.32140350289E+02 0.32941200865E+02 0.23841616240E+02 0.23764288876E+02
 0.23554921002E+02 0.23274336813E+02 0.23003449376E+02 0.22821183091E+02 0.22785764272E+02
 0.22923356559E+02 0.23224152557E+02 0.23644019295E+02 0.24110126650E+02 0.24530728485E+02
 0.24809745369E+02 0.24864191856E+02 0.24639446922E+02 0.24117663118E+02 0.23317862064E+02
 0.22289706199E+02 0.21104513721E+02 0.19845674467E+02 0.18598062686E+02 0.17436239458E+02
 0.16414090489E+02 0.15560015150E+02 0.14879876735E+02 0.14365950247E+02 0.14006915901E+02
 0.13794244285E+02 0.13723724072E+02 0.13794244285E+02 0.14006915901E+02 0.14365950247E+02
 0.14879876735E+02 0.15560015150E+02 0.16414090489E+02 0.17436239458E+02 0.18598062686E+02
 0.19845674467E+02 0.21104513721E+02 0.22289706199E+02 0.23317862064E+02 0.24117663118E+02
 0.24639446922E+02 0.24864191856E+02 0.24809745369E+02 0.24530728485E+02 0.24110126650E+02
 0.23644019295E+02 0.23224152557E+02 0.22923356559E+02 0.22785764272E+02 0.22821183091E+02
 0.23003449376E+02 0.23274336813E+02 0.23554921002E+02 0.23764288876E+02 0.17839608387E+02
 0.17861840866E+02 0.17935469155E+02 0.18080128384E+02 0.18324457717E+02 0.18699568351E+02
 0.19229822753E+02 0.19922114636E+02 0.20756667944E+02 0.21683245327E+02 0.22625136321E+02
 0.23490446995E+02 0.24187449130E+02 0.24639446922E+02 0.24795968535E+02 0.24639446922E+02
 0.24187449130E+02 0.23490446995E+02 0.22625136321E+02 0.21683245327E+02 0.20756667944E+02
 0.19922114636E+02 0.19229822753E+02 0.18699568351E+02 0.18324457717E+02 0.18080128384E+02
 0.17935469155E+02 0.17861840866E+02 0.17839608387E+02 0.17861840866E+02 0.17935469155E+02
 0.18080128384E+02 0.18324457717E+02 0.18699568351E+02 0.19229822753E+02 0.19922114636E+02
 0.20756667944E+02 0.21683245327E+02 0.22625136321E+02 0.23490446995E+02 0.24187449130E+02
 0.24639446922E+02 0.24795968535E+02 0.24639446922E+02 0.24187449130E+02 0.23490446995E+02
 0.22625136321E+02 0.21683245327E+02 0.20756667944E+02 0.19922114636E+02 0.19229822753E+02
 0.18699568351E+02 0.18324457717E+02 0.18080128384E+02 0.17935469155E+02 0.17861840866E+02
 0.13723724072E+02 0.13794244285E+02 0.14006915901E+02 0.14365950247E+02 0.14879876735E+02
 0.15560015150E+02 0.16414090489E+02 0.17436239458E+02 0.18598062686E+02 0.19845674467E+02
 0.21104513721E+02 0.22289706199E+02 0.23317862064E+02 0.24117663118E+02 0.24639446922E+02
 0.24864191856E+02 0.24809745369E+02 0.24530728485E+02 0.24110126650E+02 0.23644019295E+02
 0.23224152557E+02 0.22923356559E+02 0.22785764272E+02 0.22821183091E+02 0.23003449376E+02
 0.23274336813E+02 0.23554921002E+02 0.23764288876E+02 0.23841616240E+02 0.23764288876E+02
 0.23554921002E+02 0.23274336813E+02 0.23003449376E+02 0.22821183091E+02 0.22785764272E+02
 0.22923356559E+02 0.23224152557E+02 0.23644019295E+02 0.24110126650E+02 0.24530728485E+02
 0.24809745369E+02 0.24864191856E+02 0.24639446922E+02 0.24117663118E+02 0.23317862064E+02
 0.22289706199E+02 0.21104513721E+02 0.19845674467E+02 0.18598062686E+02 0.17436239458E+02
 0.16414090489E+02 0.15560015150E+02 0.14879876735E+02 0.14365950247E+02 0.14006915901E+02
 0.13794244285E+02 0.10793344553E+02 0.10886678756E+02 0.11165582174E+02 0.11628206549E+02
 0.12274615069E+02 0.13106839832E+02 0.14123888587E+02 0.15313491029E+02 0.16645346306E+02
 0.18069725751E+02 0.19521736650E+02 0.20928376720E+02 0.22215827079E+02 0.23317862064E+02
 0.24187449130E+02 0.24809745369E+02 0.25210277747E+02 0.25452532508E+02 0.25624994457E+02
 0.25824521343E+02 0.26143661285E+02 0.26661861577E+02 0.27433096300E+02 0.28465116806E+02
 0.29696670473E+02 0.30988226940E+02 0.32140350289E+02 0.32941200865E+02 0.33228436575E+02
 0.32941200865E+02 0.32140350289E+02 0.30988226940E+02 0.29696670473E+02 0.28465116806E+02
 0.27433096300E+02 0.26661861577E+02 0.26143661285E+02 0.25824521343E+02 0.25624994457E+02
 0.25452532508E+02 0.25210277747E+02 0.24809745369E+02 0.24187449130E+02 0.23317862064E+02
 0.22215827079E+02 0.20928376720E+02 0.19521736650E+02 0.18069725751E+02 0.16645346306E+02
 0.15313491029E+02 0.14123888587E+02 0.13106839832E+02 0.12274615069E+02 0.11628206549E+02
 0.11165582174E+02 0.10886678756E+02 0.86640363472E+01 0.87649700270E+01 0.90659534907E+01
 0.95630558806E+01 0.10253145394E+02 0.11134472048E+02 0.12202836590E+02 0.13445401359E+02
 0.14836101288E+02 0.16334947556E+02 0.17890427009E+02 0.19442741925E+02 0.20928376720E+02
 0.22289706199E+02 0.23490446995E+02 0.24530728485E+02 0.25452532508E+02 0.26331700548E+02
 0.27264004549E+02 0.28358313238E+02 0.29738756293E+02 0.31538704374E+02 0.33865059385E+02
 0.36731267092E+02 0.39988203839E+02 0.43299315027E+02 0.46191814285E+02 0.48175184018E+02
 0.48881662514E+02 0.48175184018E+02 0.46191814285E+02 0.43299315027E+02 0.39988203839E+02
 0.36731267092E+02 0.33865059385E+02 0.31538704374E+02 0.29738756293E+02 0.28358313238E+02
 0.27264004549E+02 0.26331700548E+02 0.25452532508E+02 0.24530728485E+02 0.23490446995E+02
 0.22289706199E+02 0.20928376720E+02 0.19442741925E+02 0.17890427009E+02 0.16334947556E+02
 0.14836101288E+02 0.13445401359E+02 0.12202836590E+02 0.11134472048E+02 0.10253145394E+02
 0.95630558806E+01 0.90659534907E+01 0.87649700270E+01 0.70710233545E+01 0.71700307615E+01
 0.74654123197E+01 0.79535755281E+01 0.86314629967E+01 0.94970636291E+01 0.10546592915E+02
 0.11770272733E+02 0.13149439033E+02 0.14655812936E+02 0.16251654210E+02 0.17890427009E+02
 0.19521736650E+02 0.21104513721E+02 0.22625136321E+02 0.24110126650E+02 0.25624994457E+02
 0.27264004549E+02 0.29149640243E+02 0.31453022761E+02 0.34414188404E+02 0.38315365532E+02
 0.43373446694E+02 0.49572842133E+02 0.56526132325E+02 0.63467538015E+02 0.69414638172E+02
 0.73426806067E+02 0.74845152519E+02 0.73426806067E+02 0.69414638172E+02 0.63467538015E+02
 0.56526132325E+02 0.49572842133E+02 0.43373446694E+02 0.38315365532E+02 0.34414188404E+02
 0.31453022761E+02 0.29149640243E+02 0.27264004549E+02 0.25624994457E+02 0.24110126650E+02
 0.22625136321E+02 0.21104513721E+02 0.19521736650E+02 0.17890427009E+02 0.16251654210E+02
 0.14655812936E+02 0.13149439033E+02 0.11770272733E+02 0.10546592915E+02 0.94970636291E+01
 0.86314629967E+01 0.79535755281E+01 0.74654123197E+01 0.71700307615E+01 0.58349540823E+01
 0.59268501345E+01 0.62016151119E+01 0.66574107603E+01 0.72930524316E+01 0.81080655571E+01
 0.91007630929E+01 0.10265807494E+02 0.11592611413E+02 0.13064232582E+02 0.14655812936E+02
 0.16334947556E+02 0.18069725751E+02 0.19845674467E+02 0.21683245327E+02 0.23644019295E+02
 0.25824521343E+02 0.28358313238E+02 0.31453022761E+02 0.35452596369E+02 0.40858435571E+02
 0.48220677386E+02 0.57864370974E+02 0.69550662260E+02 0.82364572728E+02 0.95667319588E+02
 0.10809523299E+03 0.11710807483E+03 0.12041364587E+03 0.11710807483E+03 0.10809523299E+03
 0.95667319588E+02 0.82364572728E+02 0.69550662260E+02 0.57864370974E+02 0.48220677386E+02
 0.40858435571E+02 0.35452596369E+02 0.31453022761E+02 0.28358313238E+02 0.25824521343E+02
 0.23644019295E+02 0.21683245327E+02 0.19845674467E+02 0.18069725751E+02 0.16334947556E+02
 0.14655812936E+02 0.13064232582E+02 0.11592611413E+02 0.10265807494E+02 0.91007630929E+01
 0.81080655571E+01 0.72930524316E+01 0.66574107603E+01 0.62016151119E+01 0.59268501345E+01
 0.48523788196E+01 0.49349916404E+01 0.51828289983E+01 0.55962958558E+01 0.61766238083E+01
 0.69253734564E+01 0.78433717759E+01 0.89298585685E+01 0.10181853736E+02 0.11592611413E+02
 0.13149439033E+02 0.14836101288E+02 0.16645346306E+02 0.18598062686E+02 0.20756667944E+02
 0.23224152557E+02 0.26143661285E+02 0.29738756293E+02 0.34414188404E+02 0.40858435571E+02
 0.50006915416E+02 0.62718292130E+02 0.79181453359E+02 0.99800534634E+02 0.12611513239E+03
 0.15594277636E+03 0.18392769193E+03 0.20389827258E+03 0.21113718271E+03 0.20389827258E+03
 0.18392769193E+03 0.15594277636E+03 0.12611513239E+03 0.99800534634E+02 0.79181453359E+02
 0.62718292130E+02 0.50006915416E+02 0.40858435571E+02 0.34414188404E+02 0.29738756293E+02
 0.26143661285E+02 0.23224152557E+02 0.20756667944E+02 0.18598062686E+02 0.16645346306E+02
 0.14836101288E+02 0.13149439033E+02 0.11592611413E+02 0.10181853736E+02 0.89298585685E+01
 0.78433717759E+01 0.69253734564E+01 0.61766238083E+01 0.55962958558E+01 0.51828289983E+01
 0.49349916404E+01 0.40688737120E+01 0.41417052032E+01 0.43610803552E+01 0.47295073955E+01
 0.52504504755E+01 0.59274288408E+01 0.67638139683E+01 0.77632995738E+01 0.89298585685E+01
 0.10265807494E+02 0.11770272733E+02 0.13445401359E+02 0.15313491029E+02 0.17436239458E+02
 0.19922114636E+02 0.22923356559E+02 0.26661861577E+02 0.31538704374E+02 0.38315365532E+02
 0.48220677386E+02 0.62718292130E+02 0.82758284010E+02 0.11098007633E+03 0.15231856873E+03
 0.20560154868E+03 0.26353361890E+03 0.31566903677E+03 0.35181273526E+03 0.36472802718E+03
 0.35181273526E+03 0.31566903677E+03 0.26353361890E+03 0.20560154868E+03 0.15231856873E+03
 0.11098007633E+03 0.82758284010E+02 0.62718292130E+02 0.48220677386E+02 0.38315365532E+02
 0.31538704374E+02 0.26661861577E+02 0.22923356559E+02 0.19922114636E+02 0.17436239458E+02
 0.15313491029E+02 0.13445401359E+02 0.11770272733E+02 0.10265807494E+02 0.89298585685E+01
 0.77632995738E+01 0.67638139683E+01 0.59274288408E+01 0.52504504755E+01 0.47295073955E+01
 0.43610803552E+01 0.41417052032E+01 0.34497554558E+01 0.35131625854E+01 0.37049772716E+01
 0.40293823209E+01 0.44916533210E+01 0.50971287594E+01 0.58518194047E+01 0.67638139683E+01
 0.78433717759E+01 0.91007630929E+01 0.10546592915E+02 0.12202836590E+02 0.14123888587E+02
 0.16414090489E+02 0.19229822753E+02 0.22785764272E+02 0.27433096300E+02 0.33865059385E+02
 0.43373446694E+02 0.57864370974E+02 0.79181453359E+02 0.11098007633E+03 0.16276283103E+03
 0.23750177562E+03 0.32868192661E+03 0.42317507917E+03 0.50551111635E+03 0.56157384278E+03
 0.58145600684E+03 0.56157384278E+03 0.50551111635E+03 0.42317507917E+03 0.32868192661E+03
 0.23750177562E+03 0.16276283103E+03 0.11098007633E+03 0.79181453359E+02 0.57864370974E+02
 0.43373446694E+02 0.33865059385E+02 0.27433096300E+02 0.22785764272E+02 0.19229822753E+02
 0.16414090489E+02 0.14123888587E+02 0.12202836590E+02 0.10546592915E+02 0.91007630929E+01
 0.78433717759E+01 0.67638139683E+01 0.58518194047E+01 0.50971287594E+01 0.44916533210E+01
 0.40293823209E+01 0.37049772716E+01 0.35131625854E+01 0.29659806430E+01 0.30209101842E+01
 0.31877776997E+01 0.34719010527E+01 0.38798804221E+01 0.44187186836E+01 0.50971287594E+01
 0.59274288408E+01 0.69253734564E+01 0.81080655571E+01 0.94970636291E+01 0.11134472048E+02
 0.13106839832E+02 0.15560015150E+02 0.18699568351E+02 0.22821183091E+02 0.28465116806E+02
 0.36731267092E+02 0.49572842133E+02 0.69550662260E+02 0.99800534634E+02 0.15231856873E+03
 0.23750177562E+03 0.35380950604E+03 0.48907663929E+03 0.62523397097E+03 0.74247209672E+03
 0.82220225109E+03 0.85052940781E+03 0.82220225109E+03 0.74247209672E+03 0.62523397097E+03
 0.48907663929E+03 0.35380950604E+03 0.23750177562E+03 0.15231856873E+03 0.99800534634E+02
 0.69550662260E+02 0.49572842133E+02 0.36731267092E+02 0.28465116806E+02 0.22821183091E+02
 0.18699568351E+02 0.15560015150E+02 0.13106839832E+02 0.11134472048E+02 0.94970636291E+01
 0.81080655571E+01 0.69253734564E+01 0.59274288408E+01 0.50971287594E+01 0.44187186836E+01
 0.38798804221E+01 0.34719010527E+01 0.31877776997E+01 0.30209101842E+01 0.25940203668E+01
 0.26419076701E+01 0.27878801077E+01 0.30377940327E+01 0.33990067723E+01 0.38798804221E+01
 0.44916533210E+01 0.52504504755E+01 0.61766238083E+01 0.72930524316E+01 0.86314629967E+01
 0.10253145394E+02 0.12274615069E+02 0.14879876735E+02 0.18324457717E+02 0.23003449376E+02
 0.29696670473E+02 0.39988203839E+02 0.56526132325E+02 0.82364572728E+02 0.12611513239E+03
 0.20560154868E+03 0.32868192661E+03 0.48907663929E+03 0.67058928914E+03 0.85222703671E+03
 0.10101193312E+04 0.11190513219E+04 0.11581319851E+04 0.11190513219E+04 0.10101193312E+04
 0.85222703671E+03 0.67058928914E+03 0.48907663929E+03 0.32868192661E+03 0.20560154868E+03
 0.12611513239E+03 0.82364572728E+02 0.56526132325E+02 0.39988203839E+02 0.29696670473E+02
 0.23003449376E+02 0.18324457717E+02 0.14879876735E+02 0.12274615069E+02 0.10253145394E+02
 0.86314629967E+01 0.72930524316E+01 0.61766238083E+01 0.52504504755E+01 0.44916533210E+01
 0.38798804221E+01 0.33990067723E+01 0.30377940327E+01 0.27878801077E+01 0.26419076701E+01
 0.23178926498E+01 0.23604614429E+01 0.24904689195E+01 0.27137389069E+01 0.30377940327E+01
 0.34719010527E+01 0.40293823209E+01 0.47295073955E+01 0.55962958558E+01 0.66574107603E+01
 0.79535755281E+01 0.95630558806E+01 0.11628206549E+02 0.14365950247E+02 0.18080128384E+02
 0.23274336813E+02 0.30988226940E+02 0.43299315027E+02 0.63467538015E+02 0.95667319588E+02
 0.15594277636E+03 0.26353361890E+03 0.42317507917E+03 0.62523397097E+03 0.85222703671E+03
 0.10822746187E+04 0.12868808327E+04 0.14311003019E+04 0.14834787841E+04 0.14311003019E+04
 0.12868808327E+04 0.10822746187E+04 0.85222703671E+03 0.62523397097E+03 0.42317507917E+03
 0.26353361890E+03 0.15594277636E+03 0.95667319588E+02 0.63467538015E+02 0.43299315027E+02
 0.30988226940E+02 0.23274336813E+02 0.18080128384E+02 0.14365950247E+02 0.11628206549E+02
 0.95630558806E+01 0.79535755281E+01 0.66574107603E+01 0.55962958558E+01 0.47295073955E+01
 0.40293823209E+01 0.34719010527E+01 0.30377940327E+01 0.27137389069E+01 0.24904689195E+01
 0.23604614429E+01 0.21277227982E+01 0.21667170802E+01 0.22858305036E+01 0.24904689195E+01
 0.27878801077E+01 0.31877776997E+01 0.37049772716E+01 0.43610803552E+01 0.51828289983E+01
 0.62016151119E+01 0.74654123197E+01 0.90659534907E+01 0.11165582174E+02 0.14006915901E+02
 0.17935469155E+02 0.23554921002E+02 0.32140350289E+02 0.46191814285E+02 0.69414638172E+02
 0.10809523299E+03 0.18392769193E+03 0.31566903677E+03 0.50551111635E+03 0.74247209672E+03
 0.10101193312E+04 0.12868808327E+04 0.15390500991E+04 0.17202091030E+04 0.17866591648E+04
 0.17202091030E+04 0.15390500991E+04 0.12868808327E+04 0.10101193312E+04 0.74247209672E+03
 0.50551111635E+03 0.31566903677E+03 0.18392769193E+03 0.10809523299E+03 0.69414638172E+02
 0.46191814285E+02 0.32140350289E+02 0.23554921002E+02 0.17935469155E+02 0.14006915901E+02
 0.11165582174E+02 0.90659534907E+01 0.74654123197E+01 0.62016151119E+01 0.51828289983E+01
 0.43610803552E+01 0.37049772716E+01 0.31877776997E+01 0.27878801077E+01 0.24904689195E+01
 0.22858305036E+01 0.21667170802E+01 0.20168311046E+01 0.20538182639E+01 0.21667170802E+01
 0.23604614429E+01 0.26419076701E+01 0.30209101842E+01 0.35131625854E+01 0.41417052032E+01
 0.49349916404E+01 0.59268501345E+01 0.71700307615E+01 0.87649700270E+01 0.10886678756E+02
 0.13794244285E+02 0.17861840866E+02 0.23764288876E+02 0.32941200865E+02 0.48175184018E+02
 0.73426806067E+02 0.11710807483E+03 0.20389827258E+03 0.35181273526E+03 0.56157384278E+03
 0.82220225109E+03 0.11190513219E+04 0.14311003019E+04 0.17202091030E+04 0.19303906731E+04
 0.20079376700E+04 0.19303906731E+04 0.17202091030E+04 0.14311003019E+04 0.11190513219E+04
 0.82220225109E+03 0.56157384278E+03 0.35181273526E+03 0.20389827258E+03 0.11710807483E+03
 0.73426806067E+02 0.48175184018E+02 0.32941200865E+02 0.23764288876E+02 0.17861840866E+02
 0.13794244285E+02 0.10886678756E+02 0.87649700270E+01 0.71700307615E+01 0.59268501345E+01
 0.49349916404E+01 0.41417052032E+01 0.35131625854E+01 0.30209101842E+01 0.26419076701E+01
 0.23604614429E+01 0.21667170802E+01 0.20538182639E+01 0.19804854671E+01 0.20168311046E+01
 0.21277227982E+01 0.23178926498E+01 0.25940203668E+01 0.29659806430E+01 0.34497554558E+01
 0.40688737120E+01 0.48523788196E+01 0.58349540823E+01 0.70710233545E+01 0.86640363472E+01
 0.10793344553E+02 0.13723724072E+02 0.17839608387E+02 0.23841616240E+02 0.33228436575E+02
 0.48881662514E+02 0.74845152519E+02 0.12041364587E+03 0.21113718271E+03 0.36472802718E+03
 0.58145600684E+03 0.85052940781E+03 0.11581319851E+04 0.14834787841E+04 0.17866591648E+04
 0.20079376700E+04 0.20897315316E+04 0.20079376700E+04 0.17866591648E+04 0.14834787841E+04
 0.11581319851E+04 0.85052940781E+03 0.58145600684E+03 0.36472802718E+03 0.21113718271E+03
 0.12041364587E+03 0.74845152519E+02 0.48881662514E+02 0.33228436575E+02 0.23841616240E+02
 0.17839608387E+02 0.13723724072E+02 0.10793344553E+02 0.86640363472E+01 0.70710233545E+01
 0.58349540823E+01 0.48523788196E+01 0.40688737120E+01 0.34497554558E+01 0.29659806430E+01